VARIABLES = "X", "X(CH3)", "X(CH4)", "X(H)", "X(OH)", "X(H2O)", "X(O)", "X(HCOP)", "X(NO)", "X(N)", "X(H2)", "X(O2)", "X(CH2O)", "X(CO)", "X(CO2)", "X(CH)", "X(H3OP)", "X(N2)", "X(NO2)", "X(E)", "X(CH2)", "temp", "u_normal", "wdot(CH3)", "wdot(CH4)", "wdot(H)", "wdot(OH)", "wdot(H2O)", "wdot(O)", "wdot(HCOP)", "wdot(NO)", "wdot(N)", "wdot(H2)", "wdot(O2)", "wdot(CH2O)", "wdot(CO)", "wdot(CO2)", "wdot(CH)", "wdot(H3OP)", "wdot(N2)", "wdot(NO2)", "wdot(E)", "wdot(CH2)", "Q"
ZONE I=702, F=POINT
0  1.87947270425e-19  0.0950226244343  1.85029598547e-13  1.03875495834e-16  5.02858103982e-16  2.63098309452e-19  1.06014755882e-38  5.90046519946e-31  8.53535968717e-39  3.21159758224e-14  0.190045248869  3.84619103112e-16  7.87689932355e-25  6.38772726956e-29  -1.01661644599e-35  2.25961046031e-31  0.714932126697  2.07310669379e-39  -3.50907934242e-53  0  298  0.421257078845  2.29629271459e-14  -5.32256495258e-14  -1.087375387e-15  -7.59295790202e-15  4.04295932768e-14  8.40848519503e-17  -3.25561489481e-58  4.06893744311e-36  -1.89936132517e-36  2.16204102047e-15  -5.7491748541e-14  5.37590850605e-14  2.89725086984e-25  5.91063443305e-34  3.0145404085e-34  2.13422172253e-58  4.18933051534e-60  4.35382848725e-42  2.98935237124e-135  0  5.16674378645e-08
0.5  1.78757290678e-17  0.0950226244339  3.38346707505e-12  6.97347728857e-15  4.78837394235e-14  1.7329775529e-17  1.44277952312e-36  6.12338956998e-29  6.2515500166e-37  8.89053730097e-13  0.190045248868  5.27724531094e-14  8.11118411657e-23  8.64362458363e-27  -6.26036759563e-34  2.18639278839e-29  0.714932126694  2.5409502067e-37  -1.20193639947e-49  0  298  0.421257078847  8.0546914758e-16  -2.73273833036e-12  -1.98894394773e-14  3.36910424993e-13  2.71416332031e-12  7.45523496719e-16  -4.21899765766e-54  2.97975285433e-34  -1.39114844122e-34  3.95407495268e-14  -5.45258265449e-12  5.11304493419e-12  2.66869421943e-21  4.08600924932e-30  1.88852931444e-30  2.76576829239e-54  3.18436156476e-56  7.04382723644e-38  5.20523647321e-132  0  4.57181643994e-06
0.8125  1.31249744718e-16  0.0950226244295  3.35089365167e-11  4.88806903767e-14  2.52312531667e-13  1.44683305147e-16  1.00587559471e-34  3.26425958737e-27  1.29385496013e-34  1.29588029563e-11  0.19004524886  2.90545709404e-13  2.8588486936e-21  5.99206417855e-25  4.6610542782e-34  1.0875983531e-27  0.714932126664  1.59423393752e-35  3.68418195212e-49  0  298.000000003  0.421257078867  8.27830786335e-15  -2.00672265402e-11  -1.97498111607e-13  3.33258360862e-12  1.90251007403e-11  9.08838645377e-15  7.48749644122e-47  6.16619371746e-32  -2.87919684913e-32  3.92112219427e-13  -4.00441713154e-11  3.75417326015e-11  1.02989734311e-19  1.00947181276e-27  4.86355072031e-32  1.01604012034e-51  3.51328281083e-52  2.78505161212e-35  1.41661201463e-51  0  3.32606288933e-05
0.96875  4.85823307084e-16  0.0950226244075  1.70766790662e-10  1.68442322659e-13  6.38532647655e-13  5.77950842001e-16  3.28930824884e-33  8.20222091069e-26  8.68759236778e-33  9.42540310144e-11  0.190045248818  7.59640364926e-13  5.46953489057e-20  1.94854744717e-23  6.89723789672e-33  2.55394730034e-26  0.714932126508  4.67652174838e-34  1.69942783145e-47  0  298.000000007  0.421257078961  4.8536707686e-14  -7.42982965173e-11  -1.01845919462e-12  1.69530000835e-11  6.55623842458e-11  5.64000850136e-14  4.42584864302e-45  4.14008372665e-30  -1.93323744474e-30  2.010139673e-12  -1.48275108523e-10  1.38961402512e-10  9.2790043611e-19  6.65529504198e-26  -6.15738274371e-31  8.40844032975e-50  5.92752950705e-49  2.18983136774e-33  8.37364308701e-50  0  0.000121677974325
1.125  2.65765891937e-15  0.0950226242437  1.04997313923e-09  8.9045913937e-13  2.67773508017e-12  3.31274223117e-15  1.41094188205e-31  2.6903394209e-24  4.93075978976e-31  8.52660176752e-10  0.190045248507  3.32874464078e-12  1.66265642156e-18  8.31094175654e-22  2.16287956357e-31  7.81711567531e-25  0.71493212534  1.79157026784e-32  3.00328149451e-45  0  298.000000032  0.421257079648  2.99729278901e-13  -4.06479604878e-10  -6.73358871317e-12  1.04138081667e-10  3.46662176218e-10  3.62033277953e-13  7.95518755111e-43  2.34845714377e-28  -1.09723488914e-28  1.28271702575e-11  -8.11253631166e-10  7.60177612563e-10  2.14949521614e-17  1.06950348664e-23  -2.41893338097e-29  1.51253174907e-47  1.10347817609e-45  3.24064432596e-31  1.50511027617e-47  0  0.000671897445343
1.28125  1.55287873713e-14  0.0950226229763  6.68183883412e-09  5.05651620939e-12  1.33704605197e-11  1.98812521977e-14  6.09651851004e-30  8.90729574641e-23  2.79535000846e-29  7.93008168816e-09  0.190045246095  1.75117049111e-11  5.2293459291e-17  3.57080680142e-20  7.58005128562e-30  2.41662675537e-23  0.714932116281  6.7393963977e-31  5.37525582248e-43  0  298.000000191  0.421257084913  1.85914085424e-12  -2.37518854327e-09  -6.20565687243e-11  6.60224233888e-10  1.97112168087e-09  2.38037486046e-12  1.67319283938e-40  1.32953985454e-26  -6.22045214958e-27  1.00693781629e-10  -4.74077661062e-09  4.44174186838e-09  6.42127335315e-16  1.91013679688e-21  2.55259796117e-28  3.2632927058e-45  2.07121362078e-42  4.67240101071e-29  3.16565964486e-45  0  0.00433150546101
1.359375  4.02316123498e-14  0.0950226190174  2.09176275877e-08  1.21388744994e-11  2.72066025433e-11  5.1534720719e-14  1.03355338816e-28  1.17268246811e-21  6.1517675319e-28  3.3584783583e-08  0.190045238555  3.68280519227e-11  6.57805445797e-16  6.02054072364e-19  5.09144966409e-29  2.98276338289e-22  0.714932087849  9.03546291692e-30  5.40134101433e-42  0  298.000000568  0.421257101212  6.81151044282e-12  -6.15571028492e-09  -3.45876499718e-10  2.05158498882e-09  4.74763798395e-09  8.13074462033e-12  2.91312302027e-39  2.92756207848e-25  -1.36894393889e-25  4.66078758077e-10  -1.2286217316e-08  1.15075568728e-08  3.24186108097e-15  5.76821688383e-20  -7.07297708806e-28  1.12573195793e-43  6.00099374809e-40  7.79206600321e-28  5.51175274818e-44  0  0.0146582931734
1.4375  1.26079586474e-13  0.0950226006331  7.36456103317e-08  3.58764417099e-11  6.87924568343e-11  1.70424886966e-13  2.25357016794e-27  1.96580488786e-20  1.28341137489e-26  1.66154222822e-07  0.190045203572  9.73476850893e-11  1.08276042722e-14  1.30529938371e-17  5.27760671349e-28  4.67374581177e-21  0.714931955793  1.61633024169e-28  1.75582726308e-40  0  298.000003226  0.421257177996  2.3927627596e-11  -1.92937852183e-08  -3.19383891862e-09  7.071714041e-09  1.42034858739e-08  2.93425964771e-11  9.98554882002e-38  6.11151825156e-24  -2.85595650349e-24  3.60815557553e-09  -3.85118893456e-08  3.60628624404e-08  2.53248300872e-14  2.80612772625e-18  -3.29909814911e-26  6.20639750626e-42  2.09869397347e-37  1.02800099946e-26  1.88937609224e-42  0  0.0905044238532
1.515625  4.13059895126e-13  0.095022513278  2.69177345508e-07  1.10048969253e-10  1.96228653535e-10  6.51347532858e-13  4.97908614621e-26  3.35000940312e-19  2.67358142188e-25  8.51087639014e-07  0.190045037489  2.86678271432e-10  1.8238435787e-13  2.86749575032e-16  6.60607265688e-27  7.45169399441e-20  0.714931328374  3.02031537052e-27  7.84993086297e-39  0  298.000024911  0.421257554776  8.26791005888e-11  -6.32145101109e-08  -3.84386308197e-08  2.41417929857e-08  4.55254070555e-08  1.05636274137e-10  4.77688963432e-36  1.27584846573e-22  -5.9494804507e-23  3.98513769991e-08  -1.26202292934e-07  1.18148312614e-07  2.28690393351e-13  1.44990411963e-16  1.2350833979e-25  3.91145422679e-40  7.45044504909e-35  -2.0093076619e-25  9.03867461724e-41  0  0.89993641674
1.5546875  7.63917659868e-13  0.0950223436968  5.6674033263e-07  1.85103977669e-10  3.30806001409e-10  1.58165578904e-12  4.49843435978e-25  2.3917115942e-18  2.28741091958e-24  2.26299917237e-06  0.190044715279  4.68229089391e-10  1.29101050265e-12  2.57643367258e-15  2.96938571662e-26  5.01322609288e-19  0.714930110297  2.62231062141e-26  5.31615698776e-38  0  298.000080215  0.421258303685  1.97412831508e-10  -1.16956942504e-07  -1.66579972207e-07  4.71712256225e-08  8.15910802501e-08  2.09332527452e-10  5.21371016175e-35  1.10426439599e-21  -5.0901414463e-22  1.69337565045e-07  -2.33474606156e-07  2.18504275446e-07  6.27418287017e-13  1.72628020228e-15  -6.05922572133e-24  5.95741886122e-39  4.55088286829e-33  -2.11886944843e-23  9.86569939995e-40  0  3.72540872477
1.59375  1.50548077938e-12  0.0950218419559  1.27121464827e-06  3.23006536989e-10  7.00077081002e-10  5.72309093901e-12  5.07206394564e-24  2.09627759651e-17  2.03593444481e-23  6.6141670162e-06  0.190043762675  8.25822949929e-10  1.12276915155e-11  2.88833362457e-14  2.11998634717e-25  4.12114421184e-18  0.71492650812  3.68977229333e-25  1.31208232311e-36  0  298.000335729  0.421260645764  4.2006940266e-10  -2.30523490066e-07  -8.28206901685e-07  9.10125846646e-08  1.63137463655e-07  3.32556313302e-10  1.34691692551e-33  1.01095746629e-20  -4.53054899741e-21  8.33496764149e-07  -4.60282862702e-07  4.30611872356e-07  1.91771356266e-12  2.61979774458e-14  -1.05817316167e-22  1.42135157418e-37  3.55021540816e-31  -6.19301642207e-22  2.54868414163e-38  0  18.1574684854
1.6328125  3.04153608197e-12  0.0950203441027  2.95221734571e-06  5.46473154735e-10  2.27611806162e-09  2.84638246272e-11  5.84767864342e-23  1.88648671483e-16  1.81822130239e-22  2.00160067371e-05  0.190040921295  1.52831352583e-09  1.00313859686e-10  3.31094066582e-13  2.12936055051e-24  3.48212727583e-17  0.714915761895  6.86590555069e-24  5.74109389956e-35  0  298.0014626  0.421268141935  8.67251722739e-10  -4.65743046196e-07  -4.44070179936e-06  1.565169321e-07  3.59995159502e-07  -1.87047797489e-10  6.72899742175e-32  9.38618700232e-20  -4.04615932834e-20  4.4496084139e-06  -9.30318577876e-07  8.69956513329e-07  5.80467164163e-12  3.96001391464e-13  -8.55402925474e-22  5.32036295658e-36  2.85325275334e-29  -1.10119508052e-20  1.27323345435e-36  0  96.5852291973
1.65234375  4.43869116956e-12  0.0950184671289  4.6946063271e-06  6.86873915128e-10  6.16389020518e-09  8.35543928783e-11  2.96538082833e-22  7.77395503865e-16  7.42912408404e-22  3.71539760001e-05  0.190037364744  2.06129677728e-09  4.10984688224e-10  1.67057883329e-12  9.13504311316e-24  1.36297334751e-16  0.714902310132  5.25825317185e-23  4.35610747583e-34  0  298.003116187  0.42127786363  1.53485835481e-09  -6.79963876444e-07  -1.12082742333e-05  1.96713067391e-07  5.62156145524e-07  -2.72340601242e-09  8.47427652429e-31  4.66081059083e-19  -1.65328888951e-19  1.12190506525e-05  -1.35806338727e-06  1.26955916981e-06  8.97015458824e-12  2.03925253658e-12  -6.87497756845e-21  7.29325724502e-35  4.80414284463e-28  -1.71569207207e-19  1.60348516284e-35  0  243.260349915
1.671875  6.71756490452e-12  0.0950146879491  7.69861449501e-06  8.51239163436e-10  2.30582952226e-08  2.83123788811e-10  1.79079265243e-21  3.72971715251e-15  3.26495442189e-21  7.20879125763e-05  0.190030217033  2.87971442809e-09  1.95910304218e-09  1.00348472301e-11  4.68853090659e-23  6.17337573123e-16  0.714875279442  5.16149913864e-22  7.06975566386e-33  0  298.007471858  0.421298852073  2.42690498211e-09  -1.02915040138e-06  -3.00990971355e-05  2.32340454091e-07  9.3149479653e-07  -1.37286574466e-08  1.47390794679e-29  2.78349786964e-18  -7.26662201431e-19  3.01102514871e-05  -2.05587444859e-06  1.92131484146e-06  1.01117169813e-11  1.20470558866e-11  -4.45192876232e-20  1.63470940798e-33  1.01293164244e-26  -1.88092502654e-18  2.78900397177e-34  0  652.396552394
1.69140625  1.06470712434e-11  0.0950070425144  1.29594779983e-05  1.04015826809e-09  9.99701163764e-08  1.01298598464e-09  1.11693657885e-20  1.85337280515e-14  1.45631705559e-20  0.00014325205721  0.190015809812  4.19314334245e-09  9.67331869299e-09  6.22627911627e-11  2.65692354337e-22  2.89756417058e-15  0.714820820175  5.38165314276e-21  1.29919778091e-31  0  298.018778007  0.421344705712  3.95327981317e-09  -1.63120642231e-06  -8.5194330924e-05  2.5038541599e-07  1.64176572127e-06  -5.71492319044e-08  2.9891571839e-28  1.52369599683e-17  -3.24217069902e-18  8.5200487578e-05  -3.25903651724e-06  3.04507303442e-06  -1.46210371178e-11  7.26869734001e-11  -2.01400330983e-19  4.30862842463e-32  2.24502957979e-25  -1.27123586766e-17  5.65652273146e-33  0  1845.10467475
1.701171875  1.39201122908e-11  0.0950002454498  1.71645064632e-05  1.15599136295e-09  2.43140071506e-07  2.10983393947e-09  3.44150095176e-20  4.82208595631e-14  3.49437793596e-20  0.000206456870506  0.190003085094  5.17686839138e-09  2.50521831681e-08  1.91084455929e-10  7.24849974155e-22  7.23574230095e-15  0.714772771239  2.20549216093e-20  4.9273032899e-31  0  298.030388855  0.421387468454  6.17669295876e-09  -2.13366479804e-06  -0.000149366173202  2.6115975004e-07  2.27254627045e-06  -1.24492894287e-07  1.6989023439e-27  7.16135637986e-17  -7.78184172116e-18  0.000149364095989  -4.26079953582e-06  3.98103224399e-06  -8.97311038498e-11  2.09214462498e-10  -8.72221028408e-19  3.19979575627e-31  1.40146983917e-24  -8.42385390937e-17  3.21512954156e-32  0  3234.02702918
1.7109375  1.89298142848e-11  0.0949898491656  2.3072494538e-05  1.30907319931e-09  6.48406687825e-07  4.65193685007e-09  1.18979940466e-19  1.37489275888e-13  8.85183134795e-20  0.000302371739761  0.189983817781  6.7787796929e-09  7.10547360761e-08  6.5770280229e-10  2.17639454911e-21  1.96856918008e-14  0.714700155941  1.02943448292e-19  2.90660219743e-30  0  298.052119142  0.421458000949  8.78495543031e-09  -2.90184969509e-06  -0.000269705107117  2.89314170268e-07  3.28684377565e-06  -2.82899374395e-07  1.12524994339e-26  3.24447713449e-16  -1.97244162077e-17  0.000269684215539  -5.79316360766e-06  5.41355263359e-06  -3.63275738501e-10  6.71996431274e-10  -3.30610345637e-18  2.84735974728e-30  1.01212744822e-23  -4.32659321685e-16  2.1297170463e-31  0  5838.40887916
1.720703125  2.70613000113e-11  0.0949737804988  3.1486240478e-05  1.53542375758e-09  1.79727043628e-06  1.05406012444e-08  4.265788527e-19  4.05890469555e-13  2.28919264599e-19  0.000447851018562  0.189954556328  9.92412238164e-09  2.0864796329e-07  2.34771878601e-09  7.04723313825e-21  5.54111251315e-14  0.714590295621  5.02321999643e-19  1.96129289517e-29  0  298.093531032  0.421576764126  1.30177400171e-08  -4.14872021942e-06  -0.00050181475509  3.45849894108e-07  5.04701065635e-06  -6.53723195361e-07  8.26392068204e-26  1.02705031224e-15  -5.10696641484e-17  0.000501749947063  -8.27829922832e-06  7.7387201859e-06  -1.36246820835e-09  2.3146620268e-09  -9.82148430742e-18  2.60909408567e-29  7.72569188267e-23  -1.40693872792e-15  1.56422979237e-30  0  10861.537758
1.7255859375  3.33500014492e-11  0.0949622918418  3.71148414759e-05  1.70245328447e-09  3.16302014673e-06  1.63914269176e-08  8.8457328339e-19  7.42046617955e-13  3.84306691886e-19  0.000548725949406  0.189934145357  1.31772825619e-08  3.80165942166e-07  4.85419419795e-09  1.3539034114e-20  9.83168152644e-14  0.714514142665  1.21167452094e-18  4.19831232555e-29  0  298.128642155  0.42166812697  1.84003302535e-08  -5.11531978451e-06  -0.000696804180442  4.09653732605e-07  6.47957624284e-06  -1.02480915346e-06  2.4709619281e-25  3.15170197695e-15  -8.58224095461e-17  0.000696696389203  -1.01985969452e-05  9.53702358241e-06  -2.81329036536e-09  4.67652645686e-09  -2.67210267091e-17  9.49968590429e-29  2.37072683852e-22  -4.55031901026e-15  4.67763119085e-30  0  15081.3578993
1.73046875  4.22311920531e-11  0.0949472902072  4.40231991446e-05  1.93329929716e-09  5.78356539591e-06  2.60612188262e-08  1.94635028143e-18  1.41539559913e-12  6.6149565882e-19  0.000675604229418  0.189908236872  1.95590375982e-08  7.22386201914e-07  1.06457688382e-08  2.73073959925e-20  1.81315393314e-13  0.714418281297  3.09506471229e-18  1.25570272406e-28  0  298.182970931  0.421797428838  2.40984534846e-08  -6.47853582354e-06  -0.000979434344363  5.14683457362e-07  8.58824358342e-06  -1.64179460888e-06  7.93413967358e-25  8.70863073826e-15  -1.47960802735e-16  0.000979255291224  -1.29085351114e-05  1.20769489574e-05  -6.148051903e-09  1.00922871507e-08  -6.49545809621e-17  3.57263857205e-28  7.78149465219e-22  -1.28661355333e-14  1.50211558032e-29  0  21198.0134018
1.7353515625  5.50993362167e-11  0.0949273728252  5.2560375213e-05  2.25784838797e-09  1.0811447673e-05  4.20349540401e-08  4.40743387882e-18  2.76397961867e-12  1.15516596108e-18  0.000835135672904  0.189875149323  3.29074222252e-08  1.40510335541e-06  2.402581468e-08  5.75692468962e-20  3.41843661219e-13  0.714297463969  8.1519733288e-18  4.1080223769e-28  0  298.268890689  0.421985006626  3.19600678826e-08  -8.45378482786e-06  -0.00139422500751  6.5374700654e-07  1.18012056713e-05  -2.66883054168e-06  2.70360905288e-24  2.32678283531e-14  -2.59050173376e-16  0.00139392587648  -1.68319265673e-05  1.57578825124e-05  -1.40519011819e-08  2.29296217381e-08  -1.59755003803e-16  1.33290884838e-27  2.65250879148e-21  -3.48234980766e-14  5.11888867904e-29  0  30175.2647567
1.740234375  7.42531225055e-11  0.0949003372334  6.31958805841e-05  2.72156943846e-09  2.04561915187e-05  6.84124316721e-08  1.01103243021e-17  5.46433139469e-12  2.03357461307e-18  0.00103563341122  0.18983249865  6.20104747205e-08  2.7668018181e-06  5.49290669269e-08  1.26250288174e-19  6.52238732609e-13  0.714144923677  2.17460502926e-17  1.3964608174e-27  0  298.407651606  0.422264553656  4.37223961174e-08  -1.13952383709e-05  -0.00201129598642  7.73099671046e-07  1.68737945058e-05  -4.38344874721e-06  9.68361488182e-24  4.40663091067e-14  -4.57964339513e-16  0.00201079103181  -2.26669391117e-05  2.12389391831e-05  -3.34137075366e-08  5.44388088612e-08  -3.39379757698e-16  4.56606310004e-27  9.22535734689e-21  -6.60585119893e-14  1.83339092897e-28  0  43531.2480586
1.74267578125  8.75868234064e-11  0.0948828015701  6.95418297385e-05  3.0344480617e-09  2.85982931931e-05  8.80398011485e-08  1.5777590039e-17  7.82916126724e-12  2.72923477156e-18  0.00115514007422  0.189806258099  9.00534769026e-08  3.95530920001e-06  8.55521027965e-08  1.92156480047e-19  9.16049535764e-13  0.714053438048  3.63917082076e-17  2.38586793497e-27  0  298.510709994  0.422460185846  5.5317319998e-08  -1.34476402674e-05  -0.00243180378585  7.98143599032e-07  2.05670074875e-05  -5.67376850139e-06  1.90171900868e-23  8.26785116717e-14  -6.16573127499e-16  0.00243114125096  -2.67263584204e-05  2.50562798701e-05  -5.3233863393e-08  8.67877074913e-08  -6.34337916212e-16  9.31656207731e-27  1.77306927522e-20  -1.24738002521e-13  3.60060999351e-28  0  52633.3927113
1.7451171875  1.04645518744e-10  0.09486145013  7.67085310015e-05  3.42673996049e-09  4.04748437251e-05  1.14027540125e-07  2.51737380812e-17  1.13781776221e-11  3.6916755804e-18  0.00128993219877  0.189775702488  1.35916677932e-07  5.7343090441e-06  1.36210435502e-07  2.97882656583e-19  1.30286227625e-12  0.713949607801  6.19850782032e-17  4.38450733287e-27  0  298.649724186  0.422713313183  6.60618550895e-08  -1.60705835498e-05  -0.00295288142728  7.5323912668e-07  2.54503767052e-05  -7.40159248987e-06  3.83188928775e-23  1.48839462399e-13  -8.3758285266e-16  0.0029520040749  -3.19176996133e-05  2.99424576e-05  -8.70344113507e-08  1.42127235222e-07  -1.1004033834e-15  1.8301817798e-26  3.48316352863e-20  -2.25450439291e-13  7.25495221299e-28  0  63913.1923513
1.74755859375  1.26669372155e-10  0.0948351073109  8.48252643628e-05  3.92515470416e-09  5.77940374372e-05  1.48427204253e-07  4.07476217845e-17  1.67031803279e-11  5.02239387547e-18  0.00144192401841  0.189739801811  2.11247058649e-07  8.3965911364e-06  2.19989489286e-07  4.70103538741e-19  1.86987088742e-12  0.713831567233  1.06832969717e-16  8.50179116224e-27  0  298.838723856  0.42304475356  7.81644073269e-08  -1.94578190561e-05  -0.00360108373477  5.29500683753e-07  3.20172655247e-05  -9.7234912725e-06  7.91005800151e-23  2.59244759058e-13  -1.14618517747e-15  0.00359990981613  -3.86175373168e-05  3.62550229421e-05  -1.45656958959e-07  2.38469826194e-07  -1.89464588607e-15  3.26262351426e-26  6.9500956478e-20  -3.93710881427e-13  1.49747002318e-27  0  77946.046096
1.75  1.55403954601e-10  0.0948021484689  9.40462497495e-05  4.56970562728e-09  8.30406749133e-05  1.93947862552e-07  6.65505267782e-17  2.46904933396e-11  6.8613934258e-18  0.00161325201449  0.189697156335  3.35331476187e-07  1.23795127727e-05  3.58492579717e-07  7.5382106047e-19  2.70070793847e-12  0.71369708422  1.85365916767e-16  1.68617800669e-26  0  299.097521897  0.42348369209  9.50398366768e-08  -2.38832402878e-05  -0.00441037145381  -9.20999433395e-08  4.10270822824e-05  -1.28594627092e-05  1.66854884105e-22  3.12828100361e-13  -1.57849696078e-15  0.00440878150261  -4.73560260937e-05  4.44984089445e-05  -2.49276867042e-07  4.09526200973e-07  -3.03854612953e-15  4.77507059538e-26  1.40178002038e-19  -4.7444541252e-13  3.1581574343e-27  0  95468.1076135
1.75065973414  1.64721813616e-10  0.0947917176485  9.67594801947e-05  4.77986261428e-09  9.18447208655e-05  2.08772628122e-07  7.64299001946e-17  2.75338497464e-11  7.47878283568e-18  0.00166328012202  0.189684141403  3.82717854893e-07  1.37946985332e-05  4.11437589844e-07  8.61538625362e-19  2.99151803935e-12  0.713657454024  2.16033607989e-16  1.97424159243e-26  0  299.184262101  0.423627819836  1.01471198372e-07  -2.53205915793e-05  -0.0046628351407  -3.82556658519e-07  4.40592526051e-05  -1.38971929434e-05  2.05736371764e-22  3.79339823351e-13  -1.72517349754e-15  0.00466110344441  -5.01891963139e-05  4.71733550882e-05  -2.90253017783e-07  4.77408117734e-07  -3.80556102091e-15  5.89007934637e-26  1.70315307933e-19  -5.75939847844e-13  3.89409016079e-27  0  100934.756336
1.75131946828  1.74871629564e-10  0.0947804911201  9.95739520553e-05  5.00900938668e-09  0.000101736093779  2.24887403751e-07  8.80606238263e-17  3.07609340558e-11  8.15918671247e-18  0.00171502168654  0.1896703657  4.38466534961e-07  1.53993779695e-05  4.73717950534e-07  9.86722795708e-19  3.31883855929e-12  0.71361626978  2.52360698742e-16  2.33763225152e-26  0  299.280143437  0.423785697327  1.057999631e-07  -2.68841639388e-05  -0.00493141320349  -7.41064168305e-07  4.74110189982e-05  -1.50348550965e-05  2.54449667782e-22  5.15352696761e-13  -1.88774398293e-15  0.00492952407201  -5.32752018811e-05  5.0088168055e-05  -3.39165031205e-07  5.58594856069e-07  -4.69995677338e-15  7.05366426714e-26  2.07491888566e-19  -7.83941607477e-13  4.81604794039e-27  0  106750.625069
1.75263893657  1.97932155767e-10  0.0947554160734  0.000105519892841  5.53126543384e-09  0.000125180086655  2.61319604928e-07  1.17502407684e-16  3.85206704588e-11  9.72805944422e-18  0.00182381115845  0.189640328569  5.79490384551e-07  1.92528555833e-05  6.31197703264e-07  1.29989193467e-18  4.09664358303e-12  0.713529013584  3.45516701627e-16  3.43915301718e-26  0  299.502414336  0.424147183698  1.10716173134e-07  -3.04342602982e-05  -0.00552080913481  -1.73043490636e-06  5.52245050871e-05  -1.76447662377e-05  3.91760712696e-22  7.34205324292e-13  -2.26633487622e-15  0.00551855061908  -6.02863195954e-05  5.67146146193e-05  -4.67056367538e-07  7.71517650564e-07  -6.64144420375e-15  7.54260581387e-26  3.09463031163e-19  -1.11824437146e-12  7.4140193273e-27  0  119514.627543
1.75395840485  2.25288795593e-10  0.0947263228861  0.00011192214868  6.15752112784e-09  0.000154401631765  3.040840825e-07  1.57362497979e-16  4.8371229091e-11  1.16173637455e-17  0.00194001599011  0.189606521713  7.70313601521e-07  2.41365077916e-05  8.44112597187e-07  1.72483279804e-18  5.06931387275e-12  0.713434754176  4.74287982435e-16  5.15476344564e-26  0  299.772026019  0.424579323421  1.1344944973e-07  -3.46476358944e-05  -0.00618788423484  -3.25451946186e-06  6.48782066225e-05  -2.07777694282e-05  6.09141848179e-22  1.00262926225e-12  -2.72926810855e-15  0.0061851658896  -6.86031648174e-05  6.45824550827e-05  -6.49957040672e-07  1.07728127085e-06  -9.47746085276e-15  3.84817792546e-26  4.63466611158e-19  -1.52827325775e-12  1.15256542827e-26  0  133962.674272
1.75527787313  2.57958922492e-10  0.0946924002757  0.000118822742412  6.91751378295e-09  0.000190812247993  3.5427067349e-07  2.1130761317e-16  6.08725988015e-11  1.38920088467e-17  0.0020641133509  0.189568230805  1.02853701357e-06  3.03240743141e-05  1.13187958558e-06  2.30560876579e-18  6.28526292449e-12  0.713332774573  6.52136854976e-16  7.85373318083e-26  0  300.09964799  0.425097581293  1.11293721751e-07  -3.96810132195e-05  -0.00694297491392  -5.58495682599e-06  7.69471325659e-05  -2.45552792103e-05  9.5673255245e-22  1.34884145293e-12  -3.2970451838e-15  0.00693967809802  -7.85351851883e-05  7.39878223101e-05  -9.1443919143e-07  1.52144165903e-06  -1.3649344314e-14  -1.16326918408e-25  6.96345087441e-19  -2.0572233712e-12  1.80973628983e-26  0  150319.56546
1.75659734141  2.97266545963e-10  0.0946526588099  0.00012626804852  7.85227971191e-09  0.000236161923906  4.1315277592e-07  2.84282133963e-16  7.67329183626e-11  1.66299167319e-17  0.00219660369033  0.189524572303  1.37793195702e-06  3.81611334353e-05  1.52065435096e-06  3.10556465809e-18  7.8047206462e-12  0.713222254118  8.97381980291e-16  1.21424149832e-25  0  300.498389713  0.425720931633  1.00703077621e-07  -4.57390811964e-05  -0.00779748812958  -9.13480084025e-06  9.22356620449e-05  -2.91341449121e-05  1.51849853944e-21  1.78653873585e-12  -3.99598538469e-15  0.0077934549198  -9.04850444766e-05  8.53165776947e-05  -1.30166383283e-06  2.17500318229e-06  -1.98324198461e-14  -5.67169176557e-25  1.04875724354e-18  -2.72600846044e-12  2.87125765866e-26  0  168833.738283
1.7579168097  3.44958786273e-10  0.0946058919497  0.00013430918315  9.01922348847e-09  0.000292616954354  4.82216542809e-07  3.82944976211e-16  9.68466661622e-11  1.99245679144e-17  0.00233800970472  0.189474451133  1.85056489366e-06  4.80834637645e-05  2.04562970189e-06  4.21652188198e-18  9.70250623827e-12  0.71310224973  1.23480626077e-15  1.9010946641e-25  0  300.984347264  0.426472644504  7.72867072364e-08  -5.30933368083e-05  -0.00876382282501  -1.45361884323e-05  0.000111886664507  -3.47199653256e-05  2.43685975602e-21  2.3039338984e-12  -4.86025114462e-15  0.00875883977672  -0.000104983850506  9.90782970476e-05  -1.87651232954e-06  3.15065467898e-06  -2.90015379581e-14  -1.71072245298e-24  1.58219767317e-18  -3.5164443074e-12  4.60543343509e-26  0  189775.789738
1.75923627798  4.03359243926e-10  0.0945506292413  0.000143002378816  1.04996868327e-08  0.000362853937504  5.6319398532e-07  5.16250441674e-16  1.22342142603e-10  2.38880175022e-17  0.00248887451983  0.189416508227  2.48962757623e-06  6.06398306507e-05  2.75409180806e-06  5.77208188405e-18  1.20713931752e-11  0.712971673915  1.69753562397e-15  2.99219193639e-25  0  301.577263412  0.427381235687  3.84655036237e-08  -6.21099876252e-05  -0.00985517168354  -2.27654597169e-05  0.000137548329149  -4.15865500434e-05  3.95626238337e-21  2.50442383298e-12  -5.93473451856e-15  0.00984894582567  -0.000122737297558  0.000115950817232  -2.74314028666e-06  4.63068257988e-06  -4.23522369279e-14  -4.31418526205e-24  2.38948915842e-18  -3.82030993356e-12  7.47252478893e-26  0  213434.521677
1.75989601212  4.37729225582e-10  0.0945191365383  0.000147617084858  1.14013773174e-08  0.000404385350409  6.08911340198e-07  6.00418070102e-16  1.37643080091e-10  2.61711461551e-17  0.00256807067516  0.189383966595  2.89342804764e-06  6.81655759628e-05  3.20099821044e-06  6.78898733722e-18  1.34757884943e-11  0.712901942853  1.99123637413e-15  3.70623284537e-25  0  301.922955005  0.427907523169  1.5663293891e-09  -6.74123531626e-05  -0.0104523775488  -2.84594440326e-05  0.000153473194806  -4.56256215656e-05  5.07607444887e-21  2.72714108551e-12  -6.57154189239e-15  0.0104453798806  -0.000133184504299  0.00012588926188  -3.34040572434e-06  5.65597545416e-06  -5.32975453209e-14  -6.25619518328e-24  2.94038861747e-18  -4.15969131297e-12  9.58552732012e-26  0  226384.978019
1.76055574626  4.76283803633e-10  0.0944846581462  0.000152420595541  1.24353573613e-08  0.000450959731671  6.5855251803e-07  6.99300899719e-16  1.54983238436e-10  2.86845935922e-17  0.00264988852765  0.189348648568  3.36812750508e-06  7.66864257899e-05  3.72570902316e-06  8.00917099069e-18  1.50536144496e-11  0.712828972535  2.33668825401e-15  4.62753370507e-25  0  302.307179583  0.428490035095  -5.12967732127e-08  -7.33573066185e-05  -0.0110859290966  -3.55222649252e-05  0.000171979709809  -5.01522337062e-05  6.54096378872e-21  3.04264798821e-12  -7.28820477769e-15  0.011078034911  -0.000144902881486  0.000137043805669  -4.08822508809e-06  6.94488044671e-06  -6.70097554848e-14  -9.1548070776e-24  3.62209618148e-18  -4.64107638148e-12  1.23486314883e-25  0  240126.998447
1.7612154804  5.19688675267e-10  0.0944468758527  0.00015742162136  1.36263677614e-08  0.000503175616694  7.12446181041e-07  8.15437413013e-16  1.74630239545e-10  3.14512270778e-17  0.00273440247303  0.189310242104  3.92603429553e-06  8.63319278397e-05  4.34160404701e-06  9.4799803658e-18  1.68258267253e-11  0.712752555983  2.7425716272e-15  5.82194662676e-25  0  302.734310674  0.429135075581  -1.24158796936e-07  -8.00471834397e-05  -0.0117573909963  -4.4291649505e-05  0.000193585183376  -5.52404832674e-05  8.46806216146e-21  3.37212933713e-12  -8.09645470469e-15  0.0117484512739  -0.000158094172049  0.00014960764112  -5.02926106128e-06  8.57380792603e-06  -8.45854834361e-14  -1.34843465839e-23  4.46574391834e-18  -5.14358685066e-12  1.59820735913e-25  0  254695.498004